<?xml version="1.0" encoding="UTF-8"?>

<!-- generated on 2023-11-02 01:04:43 by Eclipse SUMO sumo Version 1.18.0
<configuration xmlns:xsi="http://www.w3.org/2001/XMLSchema-instance" xsi:noNamespaceSchemaLocation="http://sumo.dlr.de/xsd/sumoConfiguration.xsd">

    <input>
        <net-file value="sumodata/net_1_1.xml"/>
        <route-files value="sumodata/veh_routes_1_1.xml"/>
        <junction-taz value="true"/>
    </input>

    <output>
        <tripinfo-output value="results/tripinfo_.xml"/>
        <tripinfo-output.write-unfinished value="True"/>
    </output>

    <time>
        <step-length value="0.25"/>
    </time>

    <processing>
        <collision.action value="warn"/>
        <collision.check-junctions value="true"/>
        <waiting-time-memory value="1000"/>
    </processing>

    <report>
        <xml-validation value="never"/>
    </report>

    <emissions>
        <device.emissions.probability value="1"/>
    </emissions>

    <traci_server>
        <remote-port value="65000"/>
    </traci_server>

    <random_number>
        <seed value="82"/>
    </random_number>

</configuration>
-->

<tripinfos xmlns:xsi="http://www.w3.org/2001/XMLSchema-instance" xsi:noNamespaceSchemaLocation="http://sumo.dlr.de/xsd/tripinfo_file.xsd">
    <tripinfo id="right0_left0.0" depart="3.75" departLane="right0A0_2" departPos="3.10" departSpeed="16.21" departDelay="0.00" arrival="29.50" arrivalLane="A0left0_2" arrivalPos="188.10" arrivalSpeed="15.94" duration="25.75" routeLength="396.90" waitingTime="0.00" waitingCount="0" stopTime="0.00" timeLoss="1.07" rerouteNo="1" devices="tripinfo_right0_left0.0 routing_right0_left0.0 emissions_right0_left0.0" vType="car_diesel" speedFactor="1.17" vaporized="">
        <emissions CO_abs="6.012454" CO2_abs="60431.240994" HC_abs="2.953302" PMx_abs="0.905226" NOx_abs="262.968246" fuel_abs="19009.913292" electricity_abs="0"/>
    </tripinfo>
    <tripinfo id="left0_right0.0" depart="2.00" departLane="left0A0_2" departPos="3.10" departSpeed="13.56" departDelay="0.00" arrival="31.75" arrivalLane="A0right0_2" arrivalPos="188.10" arrivalSpeed="13.33" duration="29.75" routeLength="396.90" waitingTime="0.00" waitingCount="0" stopTime="0.00" timeLoss="0.37" rerouteNo="1" devices="tripinfo_left0_right0.0 routing_left0_right0.0 emissions_left0_right0.0" vType="car_diesel" speedFactor="0.98" vaporized="">
        <emissions CO_abs="6.996583" CO2_abs="58305.907637" HC_abs="2.980174" PMx_abs="0.858579" NOx_abs="245.104497" fuel_abs="18341.915697" electricity_abs="0"/>
    </tripinfo>
    <tripinfo id="top0_right0.0" depart="11.25" departLane="top0A0_2" departPos="3.10" departSpeed="14.67" departDelay="0.00" arrival="40.00" arrivalLane="A0right0_3" arrivalPos="188.10" arrivalSpeed="14.61" duration="28.75" routeLength="394.88" waitingTime="0.00" waitingCount="0" stopTime="0.00" timeLoss="1.15" rerouteNo="1" devices="tripinfo_top0_right0.0 routing_top0_right0.0 emissions_top0_right0.0" vType="car_diesel" speedFactor="1.06" vaporized="">
        <emissions CO_abs="6.660100" CO2_abs="62215.903104" HC_abs="2.976384" PMx_abs="1.052587" NOx_abs="275.390031" fuel_abs="19571.482840" electricity_abs="0"/>
    </tripinfo>
    <tripinfo id="top0_left0.0" depart="13.25" departLane="top0A0_2" departPos="3.10" departSpeed="14.87" departDelay="0.00" arrival="41.75" arrivalLane="A0left0_2" arrivalPos="188.10" arrivalSpeed="14.76" duration="28.50" routeLength="384.55" waitingTime="0.00" waitingCount="0" stopTime="0.00" timeLoss="1.78" rerouteNo="1" devices="tripinfo_top0_left0.0 routing_top0_left0.0 emissions_top0_left0.0" vType="car_diesel" speedFactor="1.07" vaporized="">
        <emissions CO_abs="6.907027" CO2_abs="64891.589081" HC_abs="3.053509" PMx_abs="1.188300" NOx_abs="292.348523" fuel_abs="20413.145742" electricity_abs="0"/>
    </tripinfo>
    <tripinfo id="bottom0_top0.0" depart="16.00" departLane="bottom0A0_2" departPos="3.10" departSpeed="15.66" departDelay="0.00" arrival="43.00" arrivalLane="A0top0_2" arrivalPos="188.10" arrivalSpeed="15.48" duration="27.00" routeLength="396.90" waitingTime="0.00" waitingCount="0" stopTime="0.00" timeLoss="1.51" rerouteNo="1" devices="tripinfo_bottom0_top0.0 routing_bottom0_top0.0 emissions_bottom0_top0.0" vType="car_diesel" speedFactor="1.13" vaporized="">
        <emissions CO_abs="6.574001" CO2_abs="65984.001733" HC_abs="3.144690" PMx_abs="1.084415" NOx_abs="292.117594" fuel_abs="20756.612500" electricity_abs="0"/>
    </tripinfo>
    <tripinfo id="top0_right0.1" depart="14.75" departLane="top0A0_2" departPos="3.10" departSpeed="13.47" departDelay="0.00" arrival="46.25" arrivalLane="A0right0_3" arrivalPos="188.10" arrivalSpeed="13.15" duration="31.50" routeLength="394.88" waitingTime="0.00" waitingCount="0" stopTime="0.00" timeLoss="1.39" rerouteNo="1" devices="tripinfo_top0_right0.1 routing_top0_right0.1 emissions_top0_right0.1" vType="car_diesel" speedFactor="0.97" vaporized="">
        <emissions CO_abs="7.380645" CO2_abs="65702.096375" HC_abs="3.080202" PMx_abs="1.267919" NOx_abs="296.878665" fuel_abs="20668.268208" electricity_abs="0"/>
    </tripinfo>
    <tripinfo id="bottom0_left0.0" depart="26.75" departLane="bottom0A0_2" departPos="3.10" departSpeed="12.77" departDelay="0.00" arrival="59.25" arrivalLane="A0left0_3" arrivalPos="188.10" arrivalSpeed="12.76" duration="32.50" routeLength="394.88" waitingTime="0.00" waitingCount="0" stopTime="0.00" timeLoss="0.76" rerouteNo="1" devices="tripinfo_bottom0_left0.0 routing_bottom0_left0.0 emissions_bottom0_left0.0" vType="car_diesel" speedFactor="0.92" vaporized="">
        <emissions CO_abs="8.132189" CO2_abs="64258.343241" HC_abs="3.213968" PMx_abs="1.159281" NOx_abs="278.221111" fuel_abs="20214.590891" electricity_abs="0"/>
    </tripinfo>
    <tripinfo id="left0_top0.0" depart="35.50" departLane="left0A0_2" departPos="3.10" departSpeed="16.71" departDelay="0.00" arrival="60.75" arrivalLane="A0top0_3" arrivalPos="188.10" arrivalSpeed="16.56" duration="25.25" routeLength="394.88" waitingTime="0.00" waitingCount="0" stopTime="0.00" timeLoss="1.01" rerouteNo="1" devices="tripinfo_left0_top0.0 routing_left0_top0.0 emissions_left0_top0.0" vType="car_diesel" speedFactor="1.20" vaporized="">
        <emissions CO_abs="5.974461" CO2_abs="61019.342041" HC_abs="2.944344" PMx_abs="0.952352" NOx_abs="268.845843" fuel_abs="19194.856329" electricity_abs="0"/>
    </tripinfo>
    <tripinfo id="bottom0_left0.1" depart="29.25" departLane="bottom0A0_2" departPos="3.10" departSpeed="12.60" departDelay="0.00" arrival="62.25" arrivalLane="A0left0_3" arrivalPos="188.10" arrivalSpeed="12.47" duration="33.00" routeLength="394.88" waitingTime="0.00" waitingCount="0" stopTime="0.00" timeLoss="0.79" rerouteNo="1" devices="tripinfo_bottom0_left0.1 routing_bottom0_left0.1 emissions_bottom0_left0.1" vType="car_diesel" speedFactor="0.91" vaporized="">
        <emissions CO_abs="7.365671" CO2_abs="60928.655083" HC_abs="2.922957" PMx_abs="1.194623" NOx_abs="272.237248" fuel_abs="19166.919069" electricity_abs="0"/>
    </tripinfo>
    <tripinfo id="bottom0_right0.0" depart="41.00" departLane="bottom0A0_2" departPos="3.10" departSpeed="15.97" departDelay="0.00" arrival="67.50" arrivalLane="A0right0_2" arrivalPos="188.10" arrivalSpeed="15.69" duration="26.50" routeLength="384.55" waitingTime="0.00" waitingCount="0" stopTime="0.00" timeLoss="1.68" rerouteNo="1" devices="tripinfo_bottom0_right0.0 routing_bottom0_right0.0 emissions_bottom0_right0.0" vType="car_diesel" speedFactor="1.15" vaporized="">
        <emissions CO_abs="6.562227" CO2_abs="64357.126660" HC_abs="3.070260" PMx_abs="1.103778" NOx_abs="286.819989" fuel_abs="20244.917591" electricity_abs="0"/>
    </tripinfo>
    <tripinfo id="left0_bottom0.0" depart="44.50" departLane="left0A0_2" departPos="3.10" departSpeed="14.26" departDelay="0.00" arrival="73.75" arrivalLane="A0bottom0_2" arrivalPos="188.10" arrivalSpeed="14.18" duration="29.25" routeLength="384.55" waitingTime="0.00" waitingCount="0" stopTime="0.00" timeLoss="1.48" rerouteNo="1" devices="tripinfo_left0_bottom0.0 routing_left0_bottom0.0 emissions_left0_bottom0.0" vType="car_diesel" speedFactor="1.03" vaporized="">
        <emissions CO_abs="7.131967" CO2_abs="61235.465640" HC_abs="3.023972" PMx_abs="1.063494" NOx_abs="267.014896" fuel_abs="19263.360785" electricity_abs="0"/>
    </tripinfo>
    <tripinfo id="top0_right0.2" depart="46.25" departLane="top0A0_2" departPos="3.10" departSpeed="14.09" departDelay="0.00" arrival="76.25" arrivalLane="A0right0_3" arrivalPos="188.10" arrivalSpeed="13.99" duration="30.00" routeLength="394.88" waitingTime="0.00" waitingCount="0" stopTime="0.00" timeLoss="1.19" rerouteNo="1" devices="tripinfo_top0_right0.2 routing_top0_right0.2 emissions_top0_right0.2" vType="car_diesel" speedFactor="1.01" vaporized="">
        <emissions CO_abs="7.578124" CO2_abs="65297.989021" HC_abs="3.217359" PMx_abs="1.105954" NOx_abs="283.885859" fuel_abs="20541.324850" electricity_abs="0"/>
    </tripinfo>
    <tripinfo id="top0_right0.3" depart="51.00" departLane="top0A0_2" departPos="3.10" departSpeed="15.20" departDelay="0.00" arrival="78.50" arrivalLane="A0right0_3" arrivalPos="188.10" arrivalSpeed="15.19" duration="27.50" routeLength="394.88" waitingTime="0.00" waitingCount="0" stopTime="0.00" timeLoss="0.91" rerouteNo="1" devices="tripinfo_top0_right0.3 routing_top0_right0.3 emissions_top0_right0.3" vType="car_diesel" speedFactor="1.09" vaporized="">
        <emissions CO_abs="6.772057" CO2_abs="66000.734713" HC_abs="3.136154" PMx_abs="1.120851" NOx_abs="293.106443" fuel_abs="20761.955144" electricity_abs="0"/>
    </tripinfo>
    <tripinfo id="left0_top0.1" depart="47.50" departLane="left0A0_2" departPos="3.10" departSpeed="12.05" departDelay="0.00" arrival="82.00" arrivalLane="A0top0_3" arrivalPos="188.10" arrivalSpeed="11.76" duration="34.50" routeLength="394.88" waitingTime="0.00" waitingCount="0" stopTime="0.00" timeLoss="0.76" rerouteNo="1" devices="tripinfo_left0_top0.1 routing_left0_top0.1 emissions_left0_top0.1" vType="car_diesel" speedFactor="0.87" vaporized="">
        <emissions CO_abs="8.581820" CO2_abs="62839.531003" HC_abs="3.197445" PMx_abs="1.213269" NOx_abs="271.514629" fuel_abs="19768.559581" electricity_abs="0"/>
    </tripinfo>
    <tripinfo id="top0_bottom0.0" depart="59.25" departLane="top0A0_2" departPos="3.10" departSpeed="15.78" departDelay="0.00" arrival="86.00" arrivalLane="A0bottom0_2" arrivalPos="188.10" arrivalSpeed="15.75" duration="26.75" routeLength="396.90" waitingTime="0.00" waitingCount="0" stopTime="0.00" timeLoss="1.49" rerouteNo="1" devices="tripinfo_top0_bottom0.0 routing_top0_bottom0.0 emissions_top0_bottom0.0" vType="car_diesel" speedFactor="1.14" vaporized="">
        <emissions CO_abs="6.268408" CO2_abs="61255.815979" HC_abs="3.002432" PMx_abs="0.962493" NOx_abs="265.865944" fuel_abs="19269.377885" electricity_abs="0"/>
    </tripinfo>
    <tripinfo id="bottom0_right0.1" depart="66.00" departLane="bottom0A0_2" departPos="3.10" departSpeed="14.01" departDelay="0.00" arrival="95.75" arrivalLane="A0right0_2" arrivalPos="188.10" arrivalSpeed="13.75" duration="29.75" routeLength="384.55" waitingTime="0.00" waitingCount="0" stopTime="0.00" timeLoss="1.56" rerouteNo="1" devices="tripinfo_bottom0_right0.1 routing_bottom0_right0.1 emissions_bottom0_right0.1" vType="car_diesel" speedFactor="1.01" vaporized="">
        <emissions CO_abs="7.362983" CO2_abs="66510.085533" HC_abs="3.125606" PMx_abs="1.281186" NOx_abs="300.531451" fuel_abs="20922.400651" electricity_abs="0"/>
    </tripinfo>
    <tripinfo id="right0_bottom0.0" depart="71.25" departLane="right0A0_2" departPos="3.10" departSpeed="16.07" departDelay="0.00" arrival="97.75" arrivalLane="A0bottom0_3" arrivalPos="188.10" arrivalSpeed="15.80" duration="26.50" routeLength="394.88" waitingTime="0.00" waitingCount="0" stopTime="0.00" timeLoss="1.10" rerouteNo="1" devices="tripinfo_right0_bottom0.0 routing_right0_bottom0.0 emissions_right0_bottom0.0" vType="car_diesel" speedFactor="1.16" vaporized="">
        <emissions CO_abs="6.478541" CO2_abs="65288.051488" HC_abs="3.112842" PMx_abs="1.069571" NOx_abs="289.529515" fuel_abs="20537.679038" electricity_abs="0"/>
    </tripinfo>
    <tripinfo id="top0_bottom0.1" depart="87.00" departLane="top0A0_2" departPos="3.10" departSpeed="13.32" departDelay="0.00" arrival="117.25" arrivalLane="A0bottom0_2" arrivalPos="188.10" arrivalSpeed="13.04" duration="30.25" routeLength="396.90" waitingTime="0.00" waitingCount="0" stopTime="0.00" timeLoss="0.36" rerouteNo="1" devices="tripinfo_top0_bottom0.1 routing_top0_bottom0.1 emissions_top0_bottom0.1" vType="car_diesel" speedFactor="0.96" vaporized="">
        <emissions CO_abs="7.218820" CO2_abs="55123.461031" HC_abs="2.972553" PMx_abs="0.733179" NOx_abs="222.045663" fuel_abs="17341.114804" electricity_abs="0"/>
    </tripinfo>
    <tripinfo id="left0_right0.1" depart="102.25" departLane="left0A0_2" departPos="3.10" departSpeed="12.58" departDelay="0.00" arrival="134.25" arrivalLane="A0right0_2" arrivalPos="188.10" arrivalSpeed="12.38" duration="32.00" routeLength="396.90" waitingTime="0.00" waitingCount="0" stopTime="0.00" timeLoss="0.36" rerouteNo="1" devices="tripinfo_left0_right0.1 routing_left0_right0.1 emissions_left0_right0.1" vType="car_diesel" speedFactor="0.91" vaporized="">
        <emissions CO_abs="7.425934" CO2_abs="56066.175448" HC_abs="2.942329" PMx_abs="0.869992" NOx_abs="232.474226" fuel_abs="17637.679170" electricity_abs="0"/>
    </tripinfo>
    <tripinfo id="left0_top0.2" depart="111.75" departLane="left0A0_2" departPos="3.10" departSpeed="13.77" departDelay="0.00" arrival="142.00" arrivalLane="A0top0_3" arrivalPos="188.10" arrivalSpeed="13.63" duration="30.25" routeLength="394.88" waitingTime="0.00" waitingCount="0" stopTime="0.00" timeLoss="0.73" rerouteNo="1" devices="tripinfo_left0_top0.2 routing_left0_top0.2 emissions_left0_top0.2" vType="car_diesel" speedFactor="0.99" vaporized="">
        <emissions CO_abs="7.748358" CO2_abs="62981.051313" HC_abs="3.227604" PMx_abs="0.981024" NOx_abs="265.698668" fuel_abs="19812.715461" electricity_abs="0"/>
    </tripinfo>
    <tripinfo id="left0_right0.2" depart="116.00" departLane="left0A0_2" departPos="3.10" departSpeed="12.18" departDelay="0.00" arrival="149.25" arrivalLane="A0right0_2" arrivalPos="188.10" arrivalSpeed="12.13" duration="33.25" routeLength="396.90" waitingTime="0.00" waitingCount="0" stopTime="0.00" timeLoss="0.58" rerouteNo="1" devices="tripinfo_left0_right0.2 routing_left0_right0.2 emissions_left0_right0.2" vType="car_diesel" speedFactor="0.88" vaporized="">
        <emissions CO_abs="7.376213" CO2_abs="57919.096677" HC_abs="2.890621" PMx_abs="1.046601" NOx_abs="250.832666" fuel_abs="18220.386583" electricity_abs="0"/>
    </tripinfo>
    <tripinfo id="bottom0_right0.2" depart="128.00" departLane="bottom0A0_2" departPos="3.10" departSpeed="13.11" departDelay="0.00" arrival="159.75" arrivalLane="A0right0_2" arrivalPos="188.10" arrivalSpeed="13.09" duration="31.75" routeLength="384.55" waitingTime="0.00" waitingCount="0" stopTime="0.00" timeLoss="1.38" rerouteNo="1" devices="tripinfo_bottom0_right0.2 routing_bottom0_right0.2 emissions_bottom0_right0.2" vType="car_diesel" speedFactor="0.94" vaporized="">
        <emissions CO_abs="8.016993" CO2_abs="64495.597199" HC_abs="3.180857" PMx_abs="1.218018" NOx_abs="283.632296" fuel_abs="20289.146148" electricity_abs="0"/>
    </tripinfo>
    <tripinfo id="right0_top0.0" depart="139.25" departLane="right0A0_2" departPos="3.10" departSpeed="16.11" departDelay="0.00" arrival="165.75" arrivalLane="A0top0_2" arrivalPos="188.10" arrivalSpeed="16.09" duration="26.50" routeLength="384.55" waitingTime="0.00" waitingCount="0" stopTime="0.00" timeLoss="1.87" rerouteNo="1" devices="tripinfo_right0_top0.0 routing_right0_top0.0 emissions_right0_top0.0" vType="car_diesel" speedFactor="1.16" vaporized="">
        <emissions CO_abs="6.562595" CO2_abs="68359.638447" HC_abs="3.144557" PMx_abs="1.242515" NOx_abs="311.813302" fuel_abs="21503.760867" electricity_abs="0"/>
    </tripinfo>
    <tripinfo id="right0_bottom0.1" depart="153.00" departLane="right0A0_2" departPos="3.10" departSpeed="12.55" departDelay="0.00" arrival="186.50" arrivalLane="A0bottom0_3" arrivalPos="188.10" arrivalSpeed="12.24" duration="33.50" routeLength="394.88" waitingTime="0.00" waitingCount="0" stopTime="0.00" timeLoss="1.08" rerouteNo="1" devices="tripinfo_right0_bottom0.1 routing_right0_bottom0.1 emissions_right0_bottom0.1" vType="car_diesel" speedFactor="0.90" vaporized="">
        <emissions CO_abs="7.886861" CO2_abs="61020.545692" HC_abs="3.046829" PMx_abs="1.149150" NOx_abs="265.833843" fuel_abs="19196.105295" electricity_abs="0"/>
    </tripinfo>
    <tripinfo id="top0_right0.4" depart="158.25" departLane="top0A0_2" departPos="3.10" departSpeed="14.61" departDelay="0.00" arrival="187.00" arrivalLane="A0right0_3" arrivalPos="188.10" arrivalSpeed="14.29" duration="28.75" routeLength="394.88" waitingTime="0.00" waitingCount="0" stopTime="0.00" timeLoss="0.91" rerouteNo="1" devices="tripinfo_top0_right0.4 routing_top0_right0.4 emissions_top0_right0.4" vType="car_diesel" speedFactor="1.05" vaporized="">
        <emissions CO_abs="6.723336" CO2_abs="60513.752263" HC_abs="2.969576" PMx_abs="0.984125" NOx_abs="263.029458" fuel_abs="19036.172794" electricity_abs="0"/>
    </tripinfo>
    <tripinfo id="right0_bottom0.2" depart="158.50" departLane="right0A0_2" departPos="3.10" departSpeed="14.98" departDelay="0.00" arrival="187.75" arrivalLane="A0bottom0_3" arrivalPos="188.10" arrivalSpeed="14.94" duration="29.25" routeLength="394.88" waitingTime="0.00" waitingCount="0" stopTime="0.00" timeLoss="2.08" rerouteNo="1" devices="tripinfo_right0_bottom0.2 routing_right0_bottom0.2 emissions_right0_bottom0.2" vType="car_diesel" speedFactor="1.08" vaporized="">
        <emissions CO_abs="6.739258" CO2_abs="65304.587695" HC_abs="3.015613" PMx_abs="1.198037" NOx_abs="296.184507" fuel_abs="20542.940469" electricity_abs="0"/>
    </tripinfo>
    <tripinfo id="top0_right0.5" depart="165.50" departLane="top0A0_2" departPos="3.10" departSpeed="13.36" departDelay="0.00" arrival="196.75" arrivalLane="A0right0_3" arrivalPos="188.10" arrivalSpeed="12.03" duration="31.25" routeLength="394.88" waitingTime="0.00" waitingCount="0" stopTime="0.00" timeLoss="0.82" rerouteNo="1" devices="tripinfo_top0_right0.5 routing_top0_right0.5 emissions_top0_right0.5" vType="car_diesel" speedFactor="0.96" vaporized="">
        <emissions CO_abs="7.580724" CO2_abs="64790.823437" HC_abs="3.137646" PMx_abs="1.161401" NOx_abs="285.793550" fuel_abs="20381.781605" electricity_abs="0"/>
    </tripinfo>
    <tripinfo id="bottom0_top0.1" depart="170.75" departLane="bottom0A0_2" departPos="3.10" departSpeed="13.58" departDelay="0.00" arrival="200.50" arrivalLane="A0top0_2" arrivalPos="188.10" arrivalSpeed="13.50" duration="29.75" routeLength="396.90" waitingTime="0.00" waitingCount="0" stopTime="0.00" timeLoss="0.53" rerouteNo="1" devices="tripinfo_bottom0_top0.1 routing_bottom0_top0.1 emissions_bottom0_top0.1" vType="car_diesel" speedFactor="0.98" vaporized="">
        <emissions CO_abs="6.596421" CO2_abs="56965.793396" HC_abs="2.832510" PMx_abs="0.892630" NOx_abs="244.677526" fuel_abs="17920.200357" electricity_abs="0"/>
    </tripinfo>
    <tripinfo id="top0_right0.6" depart="173.25" departLane="top0A0_2" departPos="3.10" departSpeed="12.95" departDelay="0.00" arrival="205.50" arrivalLane="A0right0_3" arrivalPos="188.10" arrivalSpeed="12.80" duration="32.25" routeLength="394.88" waitingTime="0.00" waitingCount="0" stopTime="0.00" timeLoss="0.94" rerouteNo="1" devices="tripinfo_top0_right0.6 routing_top0_right0.6 emissions_top0_right0.6" vType="car_diesel" speedFactor="0.93" vaporized="">
        <emissions CO_abs="8.264241" CO2_abs="65168.953188" HC_abs="3.285885" PMx_abs="1.139494" NOx_abs="280.108996" fuel_abs="20501.072829" electricity_abs="0"/>
    </tripinfo>
    <tripinfo id="top0_bottom0.2" depart="189.75" departLane="top0A0_2" departPos="3.10" departSpeed="14.89" departDelay="0.00" arrival="218.00" arrivalLane="A0bottom0_2" arrivalPos="188.10" arrivalSpeed="14.81" duration="28.25" routeLength="396.90" waitingTime="0.00" waitingCount="0" stopTime="0.00" timeLoss="1.48" rerouteNo="1" devices="tripinfo_top0_bottom0.2 routing_top0_bottom0.2 emissions_top0_bottom0.2" vType="car_diesel" speedFactor="1.07" vaporized="">
        <emissions CO_abs="6.669611" CO2_abs="64259.677780" HC_abs="3.065250" PMx_abs="1.055097" NOx_abs="284.354186" fuel_abs="20214.305386" electricity_abs="0"/>
    </tripinfo>
    <tripinfo id="bottom0_right0.3" depart="195.00" departLane="bottom0A0_2" departPos="3.10" departSpeed="16.33" departDelay="0.00" arrival="221.00" arrivalLane="A0right0_2" arrivalPos="188.10" arrivalSpeed="16.25" duration="26.00" routeLength="384.55" waitingTime="0.00" waitingCount="0" stopTime="0.00" timeLoss="1.61" rerouteNo="1" devices="tripinfo_bottom0_right0.3 routing_bottom0_right0.3 emissions_bottom0_right0.3" vType="car_diesel" speedFactor="1.18" vaporized="">
        <emissions CO_abs="6.346512" CO2_abs="64215.505108" HC_abs="3.028588" PMx_abs="1.114730" NOx_abs="288.534088" fuel_abs="20200.265339" electricity_abs="0"/>
    </tripinfo>
    <tripinfo id="top0_left0.1" depart="191.50" departLane="top0A0_2" departPos="3.10" departSpeed="13.81" departDelay="0.00" arrival="221.75" arrivalLane="A0left0_2" arrivalPos="188.10" arrivalSpeed="13.68" duration="30.25" routeLength="384.55" waitingTime="0.00" waitingCount="0" stopTime="0.00" timeLoss="1.40" rerouteNo="1" devices="tripinfo_top0_left0.1 routing_top0_left0.1 emissions_top0_left0.1" vType="car_diesel" speedFactor="0.99" vaporized="">
        <emissions CO_abs="7.293842" CO2_abs="67234.230894" HC_abs="3.091332" PMx_abs="1.346329" NOx_abs="308.346433" fuel_abs="21150.101076" electricity_abs="0"/>
    </tripinfo>
    <tripinfo id="left0_bottom0.1" depart="195.00" departLane="left0A0_2" departPos="3.10" departSpeed="12.01" departDelay="0.00" arrival="229.50" arrivalLane="A0bottom0_2" arrivalPos="188.10" arrivalSpeed="11.92" duration="34.50" routeLength="384.55" waitingTime="0.00" waitingCount="0" stopTime="0.00" timeLoss="1.36" rerouteNo="1" devices="tripinfo_left0_bottom0.1 routing_left0_bottom0.1 emissions_left0_bottom0.1" vType="car_diesel" speedFactor="0.86" vaporized="">
        <emissions CO_abs="8.331203" CO2_abs="66906.892757" HC_abs="3.147946" PMx_abs="1.493856" NOx_abs="307.169263" fuel_abs="21047.634572" electricity_abs="0"/>
    </tripinfo>
    <tripinfo id="right0_bottom0.3" depart="196.25" departLane="right0A0_2" departPos="3.10" departSpeed="12.21" departDelay="0.00" arrival="230.25" arrivalLane="A0bottom0_3" arrivalPos="188.10" arrivalSpeed="12.02" duration="34.00" routeLength="394.88" waitingTime="0.00" waitingCount="0" stopTime="0.00" timeLoss="0.73" rerouteNo="1" devices="tripinfo_right0_bottom0.3 routing_right0_bottom0.3 emissions_right0_bottom0.3" vType="car_diesel" speedFactor="0.88" vaporized="">
        <emissions CO_abs="8.154675" CO2_abs="63853.626283" HC_abs="3.121930" PMx_abs="1.276526" NOx_abs="283.138821" fuel_abs="20087.274750" electricity_abs="0"/>
    </tripinfo>
    <tripinfo id="left0_top0.3" depart="210.75" departLane="left0A0_2" departPos="3.10" departSpeed="14.29" departDelay="0.00" arrival="239.75" arrivalLane="A0top0_3" arrivalPos="188.10" arrivalSpeed="14.02" duration="29.00" routeLength="394.88" waitingTime="0.00" waitingCount="0" stopTime="0.00" timeLoss="0.77" rerouteNo="1" devices="tripinfo_left0_top0.3 routing_left0_top0.3 emissions_left0_top0.3" vType="car_diesel" speedFactor="1.03" vaporized="">
        <emissions CO_abs="7.129588" CO2_abs="59693.381431" HC_abs="3.069643" PMx_abs="0.892852" NOx_abs="250.336356" fuel_abs="18778.385325" electricity_abs="0"/>
    </tripinfo>
    <tripinfo id="right0_top0.1" depart="215.25" departLane="right0A0_2" departPos="3.10" departSpeed="13.28" departDelay="0.00" arrival="246.50" arrivalLane="A0top0_2" arrivalPos="188.10" arrivalSpeed="13.26" duration="31.25" routeLength="384.55" waitingTime="0.00" waitingCount="0" stopTime="0.00" timeLoss="1.26" rerouteNo="1" devices="tripinfo_right0_top0.1 routing_right0_top0.1 emissions_right0_top0.1" vType="car_diesel" speedFactor="0.96" vaporized="">
        <emissions CO_abs="8.185490" CO2_abs="65120.222746" HC_abs="3.272626" PMx_abs="1.176615" NOx_abs="281.905196" fuel_abs="20485.709803" electricity_abs="0"/>
    </tripinfo>
    <tripinfo id="right0_left0.1" depart="223.25" departLane="right0A0_2" departPos="3.10" departSpeed="12.14" departDelay="0.00" arrival="256.50" arrivalLane="A0left0_2" arrivalPos="188.10" arrivalSpeed="12.02" duration="33.25" routeLength="396.90" waitingTime="0.00" waitingCount="0" stopTime="0.00" timeLoss="0.41" rerouteNo="1" devices="tripinfo_right0_left0.1 routing_right0_left0.1 emissions_right0_left0.1" vType="car_diesel" speedFactor="0.87" vaporized="">
        <emissions CO_abs="7.635349" CO2_abs="58237.669819" HC_abs="2.966915" PMx_abs="1.016314" NOx_abs="248.405401" fuel_abs="18320.727901" electricity_abs="0"/>
    </tripinfo>
    <tripinfo id="top0_bottom0.3" depart="225.50" departLane="top0A0_2" departPos="3.10" departSpeed="13.28" departDelay="0.00" arrival="257.00" arrivalLane="A0bottom0_3" arrivalPos="188.10" arrivalSpeed="12.97" duration="31.50" routeLength="396.90" waitingTime="0.00" waitingCount="0" stopTime="0.00" timeLoss="1.57" rerouteNo="1" devices="tripinfo_top0_bottom0.3 routing_top0_bottom0.3 emissions_top0_bottom0.3" vType="car_diesel" speedFactor="0.96" vaporized="">
        <emissions CO_abs="7.373369" CO2_abs="66024.526479" HC_abs="3.101486" PMx_abs="1.243956" NOx_abs="297.253395" fuel_abs="20769.679406" electricity_abs="0"/>
    </tripinfo>
    <tripinfo id="right0_top0.2" depart="223.75" departLane="right0A0_2" departPos="3.10" departSpeed="9.15" departDelay="0.25" arrival="258.50" arrivalLane="A0top0_2" arrivalPos="188.10" arrivalSpeed="12.14" duration="34.75" routeLength="384.55" waitingTime="0.00" waitingCount="0" stopTime="0.00" timeLoss="2.24" rerouteNo="1" devices="tripinfo_right0_top0.2 routing_right0_top0.2 emissions_right0_top0.2" vType="car_diesel" speedFactor="0.88" vaporized="">
        <emissions CO_abs="9.049095" CO2_abs="72223.883960" HC_abs="3.391791" PMx_abs="1.638394" NOx_abs="332.498024" fuel_abs="22720.280918" electricity_abs="0"/>
    </tripinfo>
    <tripinfo id="right0_bottom0.4" depart="228.25" departLane="right0A0_2" departPos="3.10" departSpeed="15.24" departDelay="0.00" arrival="259.00" arrivalLane="A0bottom0_3" arrivalPos="188.10" arrivalSpeed="15.08" duration="30.75" routeLength="394.88" waitingTime="0.00" waitingCount="0" stopTime="0.00" timeLoss="4.04" rerouteNo="1" devices="tripinfo_right0_bottom0.4 routing_right0_bottom0.4 emissions_right0_bottom0.4" vType="car_diesel" speedFactor="1.10" vaporized="">
        <emissions CO_abs="7.415479" CO2_abs="74250.292939" HC_abs="3.269918" PMx_abs="1.642013" NOx_abs="354.411077" fuel_abs="23356.833999" electricity_abs="0"/>
    </tripinfo>
    <tripinfo id="left0_bottom0.2" depart="226.00" departLane="left0A0_2" departPos="3.10" departSpeed="12.01" departDelay="0.00" arrival="260.50" arrivalLane="A0bottom0_2" arrivalPos="188.10" arrivalSpeed="11.89" duration="34.50" routeLength="384.55" waitingTime="0.00" waitingCount="0" stopTime="0.00" timeLoss="1.33" rerouteNo="1" devices="tripinfo_left0_bottom0.2 routing_left0_bottom0.2 emissions_left0_bottom0.2" vType="car_diesel" speedFactor="0.86" vaporized="">
        <emissions CO_abs="8.192916" CO2_abs="62847.041308" HC_abs="3.044503" PMx_abs="1.371541" NOx_abs="283.677230" fuel_abs="19770.684750" electricity_abs="0"/>
    </tripinfo>
    <tripinfo id="right0_bottom0.5" depart="245.00" departLane="right0A0_2" departPos="3.10" departSpeed="15.06" departDelay="0.00" arrival="273.00" arrivalLane="A0bottom0_3" arrivalPos="188.10" arrivalSpeed="14.79" duration="28.00" routeLength="394.88" waitingTime="0.00" waitingCount="0" stopTime="0.00" timeLoss="0.97" rerouteNo="1" devices="tripinfo_right0_bottom0.5 routing_right0_bottom0.5 emissions_right0_bottom0.5" vType="car_diesel" speedFactor="1.08" vaporized="">
        <emissions CO_abs="6.724283" CO2_abs="63474.771461" HC_abs="3.048956" PMx_abs="1.042236" NOx_abs="280.117999" fuel_abs="19967.466063" electricity_abs="0"/>
    </tripinfo>
    <tripinfo id="left0_top0.4" depart="245.50" departLane="left0A0_2" departPos="3.10" departSpeed="15.20" departDelay="0.00" arrival="273.00" arrivalLane="A0top0_3" arrivalPos="188.10" arrivalSpeed="14.92" duration="27.50" routeLength="394.88" waitingTime="0.00" waitingCount="0" stopTime="0.00" timeLoss="0.85" rerouteNo="1" devices="tripinfo_left0_top0.4 routing_left0_top0.4 emissions_left0_top0.4" vType="car_diesel" speedFactor="1.09" vaporized="">
        <emissions CO_abs="6.432493" CO2_abs="57955.335066" HC_abs="2.917777" PMx_abs="0.872545" NOx_abs="246.835133" fuel_abs="18231.390188" electricity_abs="0"/>
    </tripinfo>
    <tripinfo id="right0_bottom0.6" depart="246.25" departLane="right0A0_2" departPos="3.10" departSpeed="13.61" departDelay="0.00" arrival="276.75" arrivalLane="A0bottom0_3" arrivalPos="188.10" arrivalSpeed="13.39" duration="30.50" routeLength="394.88" waitingTime="0.00" waitingCount="0" stopTime="0.00" timeLoss="0.68" rerouteNo="1" devices="tripinfo_right0_bottom0.6 routing_right0_bottom0.6 emissions_right0_bottom0.6" vType="car_diesel" speedFactor="0.98" vaporized="">
        <emissions CO_abs="7.429935" CO2_abs="63553.325951" HC_abs="3.118410" PMx_abs="1.095868" NOx_abs="277.192654" fuel_abs="19992.508351" electricity_abs="0"/>
    </tripinfo>
