<?xml version="1.0" encoding="UTF-8"?>

<!-- generated on 2024-02-29 20:03:10 by Eclipse SUMO sumo Version 1.18.0
<configuration xmlns:xsi="http://www.w3.org/2001/XMLSchema-instance" xsi:noNamespaceSchemaLocation="http://sumo.dlr.de/xsd/sumoConfiguration.xsd">

    <input>
        <net-file value="sumodata/net_1_1.xml"/>
        <route-files value="sumodata/veh_routes_1_1.xml"/>
        <junction-taz value="true"/>
    </input>

    <output>
        <tripinfo-output value="results/tripinfo_.xml"/>
        <tripinfo-output.write-unfinished value="True"/>
    </output>

    <time>
        <step-length value="0.25"/>
    </time>

    <processing>
        <collision.action value="warn"/>
        <collision.check-junctions value="true"/>
        <waiting-time-memory value="1000"/>
    </processing>

    <report>
        <xml-validation value="never"/>
    </report>

    <emissions>
        <device.emissions.probability value="1"/>
    </emissions>

    <traci_server>
        <remote-port value="65000"/>
    </traci_server>

    <random_number>
        <seed value="9"/>
    </random_number>

</configuration>
-->

<tripinfos xmlns:xsi="http://www.w3.org/2001/XMLSchema-instance" xsi:noNamespaceSchemaLocation="http://sumo.dlr.de/xsd/tripinfo_file.xsd">
    <tripinfo id="left0_top0.0" depart="2.75" departLane="left0A0_2" departPos="3.10" departSpeed="19.79" departDelay="0.00" arrival="27.50" arrivalLane="A0top0_3" arrivalPos="188.10" arrivalSpeed="19.66" duration="24.75" routeLength="394.88" waitingTime="0.00" waitingCount="0" stopTime="0.00" timeLoss="4.34" rerouteNo="1" devices="tripinfo_left0_top0.0 routing_left0_top0.0 emissions_left0_top0.0" vType="car_diesel" speedFactor="1.43" vaporized="">
        <emissions CO_abs="6.566121" CO2_abs="83188.354128" HC_abs="3.510962" PMx_abs="1.763778" NOx_abs="405.179232" fuel_abs="26167.666324" electricity_abs="0"/>
    </tripinfo>
    <tripinfo id="bottom0_right0.0" depart="6.50" departLane="bottom0A0_2" departPos="3.10" departSpeed="13.89" departDelay="0.00" arrival="37.50" arrivalLane="A0right0_2" arrivalPos="188.10" arrivalSpeed="13.60" duration="31.00" routeLength="384.55" waitingTime="0.00" waitingCount="0" stopTime="0.00" timeLoss="2.54" rerouteNo="1" devices="tripinfo_bottom0_right0.0 routing_bottom0_right0.0 emissions_bottom0_right0.0" vType="car_diesel" speedFactor="1.00" vaporized="">
        <emissions CO_abs="7.506408" CO2_abs="69671.341707" HC_abs="3.183000" PMx_abs="1.421380" NOx_abs="321.003793" fuel_abs="21916.719585" electricity_abs="0"/>
    </tripinfo>
    <tripinfo id="left0_bottom0.0" depart="8.50" departLane="left0A0_2" departPos="3.10" departSpeed="12.78" departDelay="0.00" arrival="42.25" arrivalLane="A0bottom0_2" arrivalPos="188.10" arrivalSpeed="12.73" duration="33.75" routeLength="384.55" waitingTime="0.00" waitingCount="0" stopTime="0.00" timeLoss="2.57" rerouteNo="1" devices="tripinfo_left0_bottom0.0 routing_left0_bottom0.0 emissions_left0_bottom0.0" vType="car_diesel" speedFactor="0.92" vaporized="">
        <emissions CO_abs="7.982944" CO2_abs="69623.196278" HC_abs="3.157986" PMx_abs="1.558925" NOx_abs="325.717911" fuel_abs="21901.776662" electricity_abs="0"/>
    </tripinfo>
    <tripinfo id="left0_right0.0" depart="9.75" departLane="left0A0_2" departPos="3.10" departSpeed="12.60" departDelay="0.00" arrival="43.00" arrivalLane="A0right0_3" arrivalPos="188.10" arrivalSpeed="13.32" duration="33.25" routeLength="396.90" waitingTime="0.00" waitingCount="0" stopTime="0.00" timeLoss="3.74" rerouteNo="1" devices="tripinfo_left0_right0.0 routing_left0_right0.0 emissions_left0_right0.0" vType="car_diesel" speedFactor="0.97" vaporized="">
        <emissions CO_abs="8.615099" CO2_abs="76245.306827" HC_abs="3.521713" PMx_abs="1.582409" NOx_abs="349.828025" fuel_abs="23984.903560" electricity_abs="0"/>
    </tripinfo>
    <tripinfo id="bottom0_left0.0" depart="10.75" departLane="bottom0A0_2" departPos="3.10" departSpeed="13.56" departDelay="0.00" arrival="45.75" arrivalLane="A0left0_3" arrivalPos="188.10" arrivalSpeed="13.39" duration="35.00" routeLength="394.88" waitingTime="0.00" waitingCount="0" stopTime="0.00" timeLoss="5.04" rerouteNo="1" devices="tripinfo_bottom0_left0.0 routing_bottom0_left0.0 emissions_bottom0_left0.0" vType="car_diesel" speedFactor="0.98" vaporized="">
        <emissions CO_abs="8.845359" CO2_abs="76431.410690" HC_abs="3.482746" PMx_abs="1.788989" NOx_abs="360.843652" fuel_abs="24043.528165" electricity_abs="0"/>
    </tripinfo>
    <tripinfo id="bottom0_right0.1" depart="23.50" departLane="bottom0A0_2" departPos="3.10" departSpeed="15.14" departDelay="0.00" arrival="53.50" arrivalLane="A0right0_2" arrivalPos="188.10" arrivalSpeed="14.83" duration="30.00" routeLength="384.55" waitingTime="0.00" waitingCount="0" stopTime="0.00" timeLoss="3.87" rerouteNo="1" devices="tripinfo_bottom0_right0.1 routing_bottom0_right0.1 emissions_bottom0_right0.1" vType="car_diesel" speedFactor="1.09" vaporized="">
        <emissions CO_abs="7.543359" CO2_abs="70668.815788" HC_abs="3.250847" PMx_abs="1.458174" NOx_abs="326.714442" fuel_abs="22230.486579" electricity_abs="0"/>
    </tripinfo>
    <tripinfo id="right0_top0.0" depart="25.25" departLane="right0A0_2" departPos="3.10" departSpeed="14.19" departDelay="0.00" arrival="56.00" arrivalLane="A0top0_2" arrivalPos="188.10" arrivalSpeed="14.16" duration="30.75" routeLength="384.55" waitingTime="0.00" waitingCount="0" stopTime="0.00" timeLoss="2.82" rerouteNo="1" devices="tripinfo_right0_top0.0 routing_right0_top0.0 emissions_right0_top0.0" vType="car_diesel" speedFactor="1.02" vaporized="">
        <emissions CO_abs="7.801373" CO2_abs="71818.035454" HC_abs="3.319545" PMx_abs="1.434681" NOx_abs="328.850428" fuel_abs="22592.058965" electricity_abs="0"/>
    </tripinfo>
    <tripinfo id="top0_bottom0.1" depart="26.00" departLane="top0A0_2" departPos="3.10" departSpeed="16.48" departDelay="0.00" arrival="56.50" arrivalLane="A0bottom0_3" arrivalPos="188.10" arrivalSpeed="16.40" duration="30.50" routeLength="396.90" waitingTime="0.00" waitingCount="0" stopTime="0.00" timeLoss="6.38" rerouteNo="1" devices="tripinfo_top0_bottom0.1 routing_top0_bottom0.1 emissions_top0_bottom0.1" vType="car_diesel" speedFactor="1.19" vaporized="">
        <emissions CO_abs="7.671353" CO2_abs="81762.517221" HC_abs="3.507737" PMx_abs="1.851476" NOx_abs="395.666876" fuel_abs="25719.691894" electricity_abs="0"/>
    </tripinfo>
    <tripinfo id="top0_right0.0" depart="17.00" departLane="top0A0_2" departPos="3.10" departSpeed="13.32" departDelay="0.00" arrival="57.50" arrivalLane="A0right0_3" arrivalPos="188.10" arrivalSpeed="13.15" duration="40.50" routeLength="394.88" waitingTime="3.00" waitingCount="1" stopTime="0.00" timeLoss="10.03" rerouteNo="1" devices="tripinfo_top0_right0.0 routing_top0_right0.0 emissions_top0_right0.0" vType="car_diesel" speedFactor="0.96" vaporized="">
        <emissions CO_abs="10.665284" CO2_abs="81001.648692" HC_abs="3.679891" PMx_abs="2.553059" NOx_abs="409.539976" fuel_abs="25481.813850" electricity_abs="0"/>
    </tripinfo>
    <tripinfo id="top0_bottom0.0" depart="18.00" departLane="top0A0_2" departPos="3.10" departSpeed="10.88" departDelay="0.00" arrival="58.50" arrivalLane="A0bottom0_2" arrivalPos="188.10" arrivalSpeed="10.87" duration="40.50" routeLength="396.90" waitingTime="0.00" waitingCount="0" stopTime="0.00" timeLoss="3.89" rerouteNo="1" devices="tripinfo_top0_bottom0.0 routing_top0_bottom0.0 emissions_top0_bottom0.0" vType="car_diesel" speedFactor="0.78" vaporized="">
        <emissions CO_abs="9.509102" CO2_abs="76596.535863" HC_abs="3.408930" PMx_abs="2.031683" NOx_abs="369.513953" fuel_abs="24095.716512" electricity_abs="0"/>
    </tripinfo>
    <tripinfo id="right0_bottom0.0" depart="24.75" departLane="right0A0_2" departPos="3.10" departSpeed="15.36" departDelay="0.00" arrival="59.25" arrivalLane="A0bottom0_3" arrivalPos="188.10" arrivalSpeed="14.03" duration="34.50" routeLength="394.88" waitingTime="1.75" waitingCount="1" stopTime="0.00" timeLoss="8.01" rerouteNo="1" devices="tripinfo_right0_bottom0.0 routing_right0_bottom0.0 emissions_right0_bottom0.0" vType="car_diesel" speedFactor="1.11" vaporized="">
        <emissions CO_abs="8.963193" CO2_abs="81972.823355" HC_abs="3.579449" PMx_abs="2.254216" NOx_abs="408.907689" fuel_abs="25786.449344" electricity_abs="0"/>
    </tripinfo>
    <tripinfo id="right0_left0.0" depart="25.75" departLane="right0A0_2" departPos="3.10" departSpeed="11.08" departDelay="0.00" arrival="61.50" arrivalLane="A0left0_3" arrivalPos="188.10" arrivalSpeed="13.88" duration="35.75" routeLength="396.90" waitingTime="0.00" waitingCount="0" stopTime="0.00" timeLoss="7.41" rerouteNo="1" devices="tripinfo_right0_left0.0 routing_right0_left0.0 emissions_right0_left0.0" vType="car_diesel" speedFactor="1.01" vaporized="">
        <emissions CO_abs="8.858915" CO2_abs="84085.159588" HC_abs="3.604685" PMx_abs="2.100474" NOx_abs="410.978030" fuel_abs="26450.732107" electricity_abs="0"/>
    </tripinfo>
    <tripinfo id="bottom0_right0.2" depart="30.75" departLane="bottom0A0_2" departPos="3.10" departSpeed="14.07" departDelay="0.00" arrival="62.00" arrivalLane="A0right0_2" arrivalPos="188.10" arrivalSpeed="13.84" duration="31.25" routeLength="384.55" waitingTime="0.00" waitingCount="0" stopTime="0.00" timeLoss="3.02" rerouteNo="1" devices="tripinfo_bottom0_right0.2 routing_bottom0_right0.2 emissions_bottom0_right0.2" vType="car_diesel" speedFactor="1.01" vaporized="">
        <emissions CO_abs="7.612510" CO2_abs="70813.760551" HC_abs="3.221473" PMx_abs="1.476458" NOx_abs="328.644118" fuel_abs="22276.083103" electricity_abs="0"/>
    </tripinfo>
    <tripinfo id="left0_top0.1" depart="18.00" departLane="left0A0_2" departPos="3.10" departSpeed="12.83" departDelay="0.00" arrival="65.50" arrivalLane="A0top0_3" arrivalPos="188.10" arrivalSpeed="12.73" duration="47.50" routeLength="394.88" waitingTime="9.50" waitingCount="1" stopTime="0.00" timeLoss="15.78" rerouteNo="1" devices="tripinfo_left0_top0.1 routing_left0_top0.1 emissions_left0_top0.1" vType="car_diesel" speedFactor="0.92" vaporized="">
        <emissions CO_abs="12.654825" CO2_abs="90295.992527" HC_abs="3.800396" PMx_abs="3.900592" NOx_abs="512.060778" fuel_abs="28405.908283" electricity_abs="0"/>
    </tripinfo>
    <tripinfo id="left0_top0.2" depart="22.00" departLane="left0A0_2" departPos="3.10" departSpeed="12.62" departDelay="0.00" arrival="66.75" arrivalLane="A0top0_3" arrivalPos="188.10" arrivalSpeed="12.38" duration="44.75" routeLength="394.88" waitingTime="4.25" waitingCount="1" stopTime="0.00" timeLoss="12.66" rerouteNo="1" devices="tripinfo_left0_top0.2 routing_left0_top0.2 emissions_left0_top0.2" vType="car_diesel" speedFactor="0.91" vaporized="">
        <emissions CO_abs="11.423159" CO2_abs="78849.617912" HC_abs="3.579491" PMx_abs="2.932894" NOx_abs="416.625303" fuel_abs="24805.296197" electricity_abs="0"/>
    </tripinfo>
    <tripinfo id="top0_bottom0.2" depart="31.75" departLane="top0A0_2" departPos="3.10" departSpeed="12.00" departDelay="0.00" arrival="68.00" arrivalLane="A0bottom0_2" arrivalPos="188.10" arrivalSpeed="11.82" duration="36.25" routeLength="396.90" waitingTime="0.00" waitingCount="0" stopTime="0.00" timeLoss="2.97" rerouteNo="1" devices="tripinfo_top0_bottom0.2 routing_top0_bottom0.2 emissions_top0_bottom0.2" vType="car_diesel" speedFactor="0.86" vaporized="">
        <emissions CO_abs="8.548842" CO2_abs="69449.484285" HC_abs="3.242806" PMx_abs="1.555579" NOx_abs="319.915871" fuel_abs="21847.429810" electricity_abs="0"/>
    </tripinfo>
    <tripinfo id="left0_right0.1" depart="53.75" departLane="left0A0_2" departPos="3.10" departSpeed="16.38" departDelay="0.00" arrival="85.00" arrivalLane="A0right0_2" arrivalPos="188.10" arrivalSpeed="16.17" duration="31.25" routeLength="396.90" waitingTime="0.00" waitingCount="0" stopTime="0.00" timeLoss="6.82" rerouteNo="1" devices="tripinfo_left0_right0.1 routing_left0_right0.1 emissions_left0_right0.1" vType="car_diesel" speedFactor="1.18" vaporized="">
        <emissions CO_abs="7.961649" CO2_abs="78490.368414" HC_abs="3.561058" PMx_abs="1.681861" NOx_abs="368.807978" fuel_abs="24690.740669" electricity_abs="0"/>
    </tripinfo>
    <tripinfo id="left0_top0.3" depart="54.50" departLane="left0A0_2" departPos="3.10" departSpeed="14.35" departDelay="0.00" arrival="85.75" arrivalLane="A0top0_3" arrivalPos="188.10" arrivalSpeed="15.21" duration="31.25" routeLength="394.88" waitingTime="0.00" waitingCount="0" stopTime="0.00" timeLoss="4.85" rerouteNo="1" devices="tripinfo_left0_top0.3 routing_left0_top0.3 emissions_left0_top0.3" vType="car_diesel" speedFactor="1.11" vaporized="">
        <emissions CO_abs="8.070635" CO2_abs="79239.311896" HC_abs="3.539589" PMx_abs="1.702987" NOx_abs="373.745585" fuel_abs="24926.314906" electricity_abs="0"/>
    </tripinfo>
    <tripinfo id="bottom0_right0.3" depart="55.25" departLane="bottom0A0_2" departPos="3.10" departSpeed="13.61" departDelay="0.00" arrival="87.75" arrivalLane="A0right0_3" arrivalPos="188.10" arrivalSpeed="13.37" duration="32.50" routeLength="384.55" waitingTime="0.00" waitingCount="0" stopTime="0.00" timeLoss="3.24" rerouteNo="1" devices="tripinfo_bottom0_right0.3 routing_bottom0_right0.3 emissions_bottom0_right0.3" vType="car_diesel" speedFactor="0.98" vaporized="">
        <emissions CO_abs="8.347408" CO2_abs="70042.817001" HC_abs="3.337984" PMx_abs="1.453302" NOx_abs="317.423345" fuel_abs="22033.994578" electricity_abs="0"/>
    </tripinfo>
    <tripinfo id="bottom0_left0.1" depart="58.75" departLane="bottom0A0_2" departPos="3.10" departSpeed="14.49" departDelay="0.00" arrival="92.50" arrivalLane="A0left0_3" arrivalPos="188.10" arrivalSpeed="14.37" duration="33.75" routeLength="394.88" waitingTime="0.00" waitingCount="0" stopTime="0.00" timeLoss="5.76" rerouteNo="1" devices="tripinfo_bottom0_left0.1 routing_bottom0_left0.1 emissions_bottom0_left0.1" vType="car_diesel" speedFactor="1.04" vaporized="">
        <emissions CO_abs="8.591922" CO2_abs="78956.461166" HC_abs="3.533737" PMx_abs="1.825029" NOx_abs="375.195625" fuel_abs="24837.582839" electricity_abs="0"/>
    </tripinfo>
    <tripinfo id="left0_top0.4" depart="60.25" departLane="left0A0_2" departPos="3.10" departSpeed="14.83" departDelay="0.00" arrival="92.75" arrivalLane="A0top0_3" arrivalPos="188.10" arrivalSpeed="14.77" duration="32.50" routeLength="394.88" waitingTime="0.00" waitingCount="0" stopTime="0.00" timeLoss="5.13" rerouteNo="1" devices="tripinfo_left0_top0.4 routing_left0_top0.4 emissions_left0_top0.4" vType="car_diesel" speedFactor="1.07" vaporized="">
        <emissions CO_abs="8.076081" CO2_abs="74868.987686" HC_abs="3.386331" PMx_abs="1.677446" NOx_abs="353.268241" fuel_abs="23551.760272" electricity_abs="0"/>
    </tripinfo>
    <tripinfo id="bottom0_top0.0" depart="59.75" departLane="bottom0A0_2" departPos="3.10" departSpeed="13.94" departDelay="0.00" arrival="94.00" arrivalLane="A0top0_2" arrivalPos="188.10" arrivalSpeed="13.66" duration="34.25" routeLength="396.90" waitingTime="0.00" waitingCount="0" stopTime="0.00" timeLoss="5.69" rerouteNo="1" devices="tripinfo_bottom0_top0.0 routing_bottom0_top0.0 emissions_bottom0_top0.0" vType="car_diesel" speedFactor="1.00" vaporized="">
        <emissions CO_abs="8.369746" CO2_abs="75836.171783" HC_abs="3.422257" PMx_abs="1.706108" NOx_abs="356.893943" fuel_abs="23856.083370" electricity_abs="0"/>
    </tripinfo>
    <tripinfo id="top0_right0.1" depart="58.50" departLane="top0A0_2" departPos="3.10" departSpeed="14.68" departDelay="0.00" arrival="95.50" arrivalLane="A0right0_3" arrivalPos="188.10" arrivalSpeed="14.58" duration="37.00" routeLength="394.88" waitingTime="3.75" waitingCount="1" stopTime="0.00" timeLoss="9.26" rerouteNo="1" devices="tripinfo_top0_right0.1 routing_top0_right0.1 emissions_top0_right0.1" vType="car_diesel" speedFactor="1.06" vaporized="">
        <emissions CO_abs="9.957205" CO2_abs="82559.566473" HC_abs="3.692574" PMx_abs="2.480330" NOx_abs="417.907360" fuel_abs="25971.483538" electricity_abs="0"/>
    </tripinfo>
    <tripinfo id="left0_right0.2" depart="64.50" departLane="left0A0_2" departPos="3.10" departSpeed="14.72" departDelay="0.00" arrival="95.50" arrivalLane="A0right0_2" arrivalPos="188.10" arrivalSpeed="14.54" duration="31.00" routeLength="396.90" waitingTime="0.00" waitingCount="0" stopTime="0.00" timeLoss="3.86" rerouteNo="1" devices="tripinfo_left0_right0.2 routing_left0_right0.2 emissions_left0_right0.2" vType="car_diesel" speedFactor="1.06" vaporized="">
        <emissions CO_abs="7.869890" CO2_abs="74410.957564" HC_abs="3.451042" PMx_abs="1.464555" NOx_abs="339.418676" fuel_abs="23407.638075" electricity_abs="0"/>
    </tripinfo>
    <tripinfo id="right0_top0.1" depart="72.50" departLane="right0A0_2" departPos="3.10" departSpeed="12.47" departDelay="0.00" arrival="106.75" arrivalLane="A0top0_2" arrivalPos="188.10" arrivalSpeed="12.24" duration="34.25" routeLength="384.55" waitingTime="0.00" waitingCount="0" stopTime="0.00" timeLoss="2.55" rerouteNo="1" devices="tripinfo_right0_top0.1 routing_right0_top0.1 emissions_right0_top0.1" vType="car_diesel" speedFactor="0.90" vaporized="">
        <emissions CO_abs="8.498494" CO2_abs="67585.564539" HC_abs="3.242579" PMx_abs="1.441659" NOx_abs="305.836201" fuel_abs="21261.197152" electricity_abs="0"/>
    </tripinfo>
    <tripinfo id="right0_bottom0.1" depart="83.25" departLane="right0A0_2" departPos="3.10" departSpeed="15.97" departDelay="0.00" arrival="111.25" arrivalLane="A0bottom0_3" arrivalPos="188.10" arrivalSpeed="15.78" duration="28.00" routeLength="394.88" waitingTime="0.00" waitingCount="0" stopTime="0.00" timeLoss="2.54" rerouteNo="1" devices="tripinfo_right0_bottom0.1 routing_right0_bottom0.1 emissions_right0_bottom0.1" vType="car_diesel" speedFactor="1.15" vaporized="">
        <emissions CO_abs="7.292777" CO2_abs="72997.198120" HC_abs="3.405616" PMx_abs="1.339264" NOx_abs="330.568902" fuel_abs="22962.735805" electricity_abs="0"/>
    </tripinfo>
    <tripinfo id="top0_bottom0.3" depart="81.00" departLane="top0A0_2" departPos="3.10" departSpeed="14.38" departDelay="0.00" arrival="113.00" arrivalLane="A0bottom0_2" arrivalPos="188.10" arrivalSpeed="14.23" duration="32.00" routeLength="396.90" waitingTime="0.00" waitingCount="0" stopTime="0.00" timeLoss="4.23" rerouteNo="1" devices="tripinfo_top0_bottom0.3 routing_top0_bottom0.3 emissions_top0_bottom0.3" vType="car_diesel" speedFactor="1.04" vaporized="">
        <emissions CO_abs="7.946330" CO2_abs="74241.557631" HC_abs="3.395695" PMx_abs="1.534430" NOx_abs="342.721459" fuel_abs="23354.368082" electricity_abs="0"/>
    </tripinfo>
    <tripinfo id="bottom0_left0.2" depart="78.75" departLane="bottom0A0_2" departPos="3.10" departSpeed="11.81" departDelay="0.00" arrival="119.25" arrivalLane="A0left0_3" arrivalPos="188.10" arrivalSpeed="11.60" duration="40.50" routeLength="394.88" waitingTime="0.50" waitingCount="1" stopTime="0.00" timeLoss="6.08" rerouteNo="1" devices="tripinfo_bottom0_left0.2 routing_bottom0_left0.2 emissions_bottom0_left0.2" vType="car_diesel" speedFactor="0.85" vaporized="">
        <emissions CO_abs="9.842586" CO2_abs="79279.766334" HC_abs="3.473963" PMx_abs="2.313340" NOx_abs="395.034083" fuel_abs="24939.795371" electricity_abs="0"/>
    </tripinfo>
    <tripinfo id="right0_left0.1" depart="87.25" departLane="right0A0_2" departPos="3.10" departSpeed="13.59" departDelay="0.00" arrival="121.50" arrivalLane="A0left0_2" arrivalPos="188.10" arrivalSpeed="13.47" duration="34.25" routeLength="396.90" waitingTime="0.00" waitingCount="0" stopTime="0.00" timeLoss="4.97" rerouteNo="1" devices="tripinfo_right0_left0.1 routing_right0_left0.1 emissions_right0_left0.1" vType="car_diesel" speedFactor="0.98" vaporized="">
        <emissions CO_abs="8.059673" CO2_abs="71995.708340" HC_abs="3.273045" PMx_abs="1.581056" NOx_abs="336.654511" fuel_abs="22648.032492" electricity_abs="0"/>
    </tripinfo>
    <tripinfo id="top0_bottom0.4" depart="97.50" departLane="top0A0_2" departPos="3.10" departSpeed="16.68" departDelay="0.00" arrival="129.00" arrivalLane="A0bottom0_2" arrivalPos="188.10" arrivalSpeed="16.52" duration="31.50" routeLength="396.90" waitingTime="0.00" waitingCount="0" stopTime="0.00" timeLoss="7.51" rerouteNo="1" devices="tripinfo_top0_bottom0.4 routing_top0_bottom0.4 emissions_top0_bottom0.4" vType="car_diesel" speedFactor="1.20" vaporized="">
        <emissions CO_abs="7.964248" CO2_abs="80206.150224" HC_abs="3.519754" PMx_abs="1.890366" NOx_abs="387.668895" fuel_abs="25230.349779" electricity_abs="0"/>
    </tripinfo>
    <tripinfo id="left0_right0.3" depart="101.00" departLane="left0A0_2" departPos="3.10" departSpeed="13.75" departDelay="0.00" arrival="134.00" arrivalLane="A0right0_2" arrivalPos="188.10" arrivalSpeed="13.56" duration="33.00" routeLength="396.90" waitingTime="0.00" waitingCount="0" stopTime="0.00" timeLoss="4.11" rerouteNo="1" devices="tripinfo_left0_right0.3 routing_left0_right0.3 emissions_left0_right0.3" vType="car_diesel" speedFactor="0.99" vaporized="">
        <emissions CO_abs="8.153374" CO2_abs="76007.180078" HC_abs="3.405444" PMx_abs="1.642781" NOx_abs="356.085652" fuel_abs="23909.758223" electricity_abs="0"/>
    </tripinfo>
    <tripinfo id="right0_left0.2" depart="101.00" departLane="right0A0_2" departPos="3.10" departSpeed="13.79" departDelay="0.00" arrival="134.25" arrivalLane="A0left0_2" arrivalPos="188.10" arrivalSpeed="13.71" duration="33.25" routeLength="396.90" waitingTime="0.00" waitingCount="0" stopTime="0.00" timeLoss="4.39" rerouteNo="1" devices="tripinfo_right0_left0.2 routing_right0_left0.2 emissions_right0_left0.2" vType="car_diesel" speedFactor="0.99" vaporized="">
        <emissions CO_abs="8.032828" CO2_abs="76043.805022" HC_abs="3.369742" PMx_abs="1.665011" NOx_abs="359.022428" fuel_abs="23921.208518" electricity_abs="0"/>
    </tripinfo>
    <tripinfo id="left0_bottom0.1" depart="102.50" departLane="left0A0_2" departPos="3.10" departSpeed="13.69" departDelay="0.00" arrival="135.00" arrivalLane="A0bottom0_2" arrivalPos="188.10" arrivalSpeed="13.55" duration="32.50" routeLength="384.55" waitingTime="0.00" waitingCount="0" stopTime="0.00" timeLoss="3.48" rerouteNo="1" devices="tripinfo_left0_bottom0.1 routing_left0_bottom0.1 emissions_left0_bottom0.1" vType="car_diesel" speedFactor="0.99" vaporized="">
        <emissions CO_abs="7.533938" CO2_abs="70161.219171" HC_abs="3.129489" PMx_abs="1.532846" NOx_abs="329.993370" fuel_abs="22070.777712" electricity_abs="0"/>
    </tripinfo>
    <tripinfo id="bottom0_right0.4" depart="105.00" departLane="bottom0A0_2" departPos="3.10" departSpeed="14.60" departDelay="0.00" arrival="135.25" arrivalLane="A0right0_2" arrivalPos="188.10" arrivalSpeed="14.34" duration="30.25" routeLength="384.55" waitingTime="0.00" waitingCount="0" stopTime="0.00" timeLoss="3.25" rerouteNo="1" devices="tripinfo_bottom0_right0.4 routing_bottom0_right0.4 emissions_bottom0_right0.4" vType="car_diesel" speedFactor="1.05" vaporized="">
        <emissions CO_abs="7.214048" CO2_abs="70774.888305" HC_abs="3.135867" PMx_abs="1.489985" NOx_abs="332.483606" fuel_abs="22263.642156" electricity_abs="0"/>
    </tripinfo>
    <tripinfo id="top0_left0.0" depart="104.25" departLane="top0A0_2" departPos="3.10" departSpeed="15.30" departDelay="0.00" arrival="135.50" arrivalLane="A0left0_2" arrivalPos="188.10" arrivalSpeed="15.18" duration="31.25" routeLength="384.55" waitingTime="0.00" waitingCount="0" stopTime="0.00" timeLoss="5.29" rerouteNo="1" devices="tripinfo_top0_left0.0 routing_top0_left0.0 emissions_top0_left0.0" vType="car_diesel" speedFactor="1.10" vaporized="">
        <emissions CO_abs="7.668458" CO2_abs="75565.099908" HC_abs="3.288909" PMx_abs="1.723860" NOx_abs="362.376027" fuel_abs="23770.462530" electricity_abs="0"/>
    </tripinfo>
    <tripinfo id="bottom0_left0.3" depart="97.00" departLane="bottom0A0_2" departPos="3.10" departSpeed="13.71" departDelay="0.00" arrival="137.75" arrivalLane="A0left0_3" arrivalPos="188.10" arrivalSpeed="13.39" duration="40.75" routeLength="394.88" waitingTime="3.50" waitingCount="1" stopTime="0.00" timeLoss="11.08" rerouteNo="1" devices="tripinfo_bottom0_left0.3 routing_bottom0_left0.3 emissions_bottom0_left0.3" vType="car_diesel" speedFactor="0.99" vaporized="">
        <emissions CO_abs="10.076141" CO2_abs="81631.253801" HC_abs="3.513476" PMx_abs="2.723256" NOx_abs="427.241835" fuel_abs="25679.497185" electricity_abs="0"/>
    </tripinfo>
    <tripinfo id="left0_right0.4" depart="107.75" departLane="left0A0_2" departPos="3.10" departSpeed="14.51" departDelay="0.00" arrival="138.00" arrivalLane="A0right0_2" arrivalPos="188.10" arrivalSpeed="14.30" duration="30.25" routeLength="396.90" waitingTime="0.00" waitingCount="0" stopTime="0.00" timeLoss="2.87" rerouteNo="1" devices="tripinfo_left0_right0.4 routing_left0_right0.4 emissions_left0_right0.4" vType="car_diesel" speedFactor="1.04" vaporized="">
        <emissions CO_abs="7.252051" CO2_abs="72168.396223" HC_abs="3.236754" PMx_abs="1.425351" NOx_abs="334.321943" fuel_abs="22701.967552" electricity_abs="0"/>
    </tripinfo>
    <tripinfo id="bottom0_left0.4" depart="103.00" departLane="bottom0A0_2" departPos="3.10" departSpeed="16.10" departDelay="0.00" arrival="138.75" arrivalLane="A0left0_3" arrivalPos="188.10" arrivalSpeed="15.47" duration="35.75" routeLength="394.88" waitingTime="0.00" waitingCount="0" stopTime="0.00" timeLoss="10.68" rerouteNo="1" devices="tripinfo_bottom0_left0.4 routing_bottom0_left0.4 emissions_bottom0_left0.4" vType="car_diesel" speedFactor="1.16" vaporized="">
        <emissions CO_abs="8.697123" CO2_abs="80673.690571" HC_abs="3.536041" PMx_abs="2.029827" NOx_abs="392.974015" fuel_abs="25377.715537" electricity_abs="0"/>
    </tripinfo>
    <tripinfo id="left0_top0.5" depart="105.25" departLane="left0A0_2" departPos="3.10" departSpeed="14.06" departDelay="0.00" arrival="141.25" arrivalLane="A0top0_3" arrivalPos="188.10" arrivalSpeed="13.91" duration="36.00" routeLength="394.88" waitingTime="2.25" waitingCount="1" stopTime="0.00" timeLoss="7.29" rerouteNo="1" devices="tripinfo_left0_top0.5 routing_left0_top0.5 emissions_left0_top0.5" vType="car_diesel" speedFactor="1.01" vaporized="">
        <emissions CO_abs="9.083293" CO2_abs="79813.515122" HC_abs="3.463383" PMx_abs="2.275884" NOx_abs="401.835251" fuel_abs="25107.332010" electricity_abs="0"/>
    </tripinfo>
    <tripinfo id="bottom0_right0.5" depart="116.00" departLane="bottom0A0_2" departPos="3.10" departSpeed="13.58" departDelay="0.00" arrival="148.75" arrivalLane="A0right0_2" arrivalPos="188.10" arrivalSpeed="13.49" duration="32.75" routeLength="384.55" waitingTime="0.00" waitingCount="0" stopTime="0.00" timeLoss="3.53" rerouteNo="1" devices="tripinfo_bottom0_right0.5 routing_bottom0_right0.5 emissions_bottom0_right0.5" vType="car_diesel" speedFactor="0.98" vaporized="">
        <emissions CO_abs="7.737402" CO2_abs="67085.130583" HC_abs="3.136230" PMx_abs="1.413552" NOx_abs="307.492934" fuel_abs="21103.427294" electricity_abs="0"/>
    </tripinfo>
    <tripinfo id="bottom0_left0.5" depart="115.25" departLane="bottom0A0_2" departPos="3.10" departSpeed="13.46" departDelay="0.00" arrival="149.75" arrivalLane="A0left0_3" arrivalPos="188.10" arrivalSpeed="13.44" duration="34.50" routeLength="394.88" waitingTime="0.00" waitingCount="0" stopTime="0.00" timeLoss="4.28" rerouteNo="1" devices="tripinfo_bottom0_left0.5 routing_bottom0_left0.5 emissions_bottom0_left0.5" vType="car_diesel" speedFactor="0.97" vaporized="">
        <emissions CO_abs="8.299030" CO2_abs="74015.783743" HC_abs="3.327278" PMx_abs="1.697637" NOx_abs="349.446252" fuel_abs="23283.486566" electricity_abs="0"/>
    </tripinfo>
    <tripinfo id="left0_top0.6" depart="115.25" departLane="left0A0_2" departPos="3.10" departSpeed="13.08" departDelay="0.00" arrival="152.75" arrivalLane="A0top0_3" arrivalPos="188.10" arrivalSpeed="12.94" duration="37.50" routeLength="394.88" waitingTime="0.75" waitingCount="1" stopTime="0.00" timeLoss="6.59" rerouteNo="1" devices="tripinfo_left0_top0.6 routing_left0_top0.6 emissions_left0_top0.6" vType="car_diesel" speedFactor="0.94" vaporized="">
        <emissions CO_abs="9.073262" CO2_abs="75528.117178" HC_abs="3.396070" PMx_abs="2.006503" NOx_abs="367.499047" fuel_abs="23759.507716" electricity_abs="0"/>
    </tripinfo>
    <tripinfo id="left0_bottom0.2" depart="122.75" departLane="left0A0_2" departPos="3.10" departSpeed="14.58" departDelay="0.00" arrival="153.75" arrivalLane="A0bottom0_2" arrivalPos="188.10" arrivalSpeed="14.27" duration="31.00" routeLength="384.55" waitingTime="0.00" waitingCount="0" stopTime="0.00" timeLoss="3.74" rerouteNo="1" devices="tripinfo_left0_bottom0.2 routing_left0_bottom0.2 emissions_left0_bottom0.2" vType="car_diesel" speedFactor="1.05" vaporized="">
        <emissions CO_abs="7.929336" CO2_abs="73717.033186" HC_abs="3.378194" PMx_abs="1.524454" NOx_abs="341.279895" fuel_abs="23189.390059" electricity_abs="0"/>
    </tripinfo>
    <tripinfo id="top0_bottom0.5" depart="121.00" departLane="top0A0_2" departPos="3.10" departSpeed="12.98" departDelay="0.00" arrival="155.50" arrivalLane="A0bottom0_3" arrivalPos="188.10" arrivalSpeed="12.78" duration="34.50" routeLength="396.90" waitingTime="0.00" waitingCount="0" stopTime="0.00" timeLoss="3.90" rerouteNo="1" devices="tripinfo_top0_bottom0.5 routing_top0_bottom0.5 emissions_top0_bottom0.5" vType="car_diesel" speedFactor="0.93" vaporized="">
        <emissions CO_abs="8.220789" CO2_abs="74974.414282" HC_abs="3.314588" PMx_abs="1.715055" NOx_abs="355.642200" fuel_abs="23584.935897" electricity_abs="0"/>
    </tripinfo>